HEADER
"PSFversion" "1.00"
"M0n" "NCSU_Devices_FreePDK45_NMOS_VTG_spectre"
"M1n" "NCSU_Devices_FreePDK45_PMOS_VTG_spectre"
"gndv" ":1v"
"inv" ":2v"
"outv" ":3v"
"vddv" ":4v"
