HEADER
"PSFversion" "1.00"
"I3n I2n I1n I0n" "small_inv"
"gndv" ":1v"
"inv" ":2v"
"outv" ":3v"
"vddv" ":4v"
