HEADER
"PSFversion" "1.00"
"M0n" "NCSU_Devices_FreePDK45_PMOS_VTG_spectre"
"M1n" "NCSU_Devices_FreePDK45_NMOS_VTG_spectre"
"GNDv" ":1v"
"VDDv" ":2v"
"inv" ":3v"
"outv" ":4v"
