HEADER
"PSFversion" "1.00"
"I0_MM3n I0_MM2n I0_MM5n I0_MM4n I1_MM3n I1_MM2n I1_MM5n I1_MM4n I2_MM3n I2_MM2n I2_MM5n I2_MM4n I3_MM3n I3_MM2n I3_MM5n I3_MM4n I6_MM3n I6_MM7n I5_I0_MM1n I5_MM2n I5_MM1n I6_MM5n I5_MM3n I6_MM4n I5_MM0n" "NCSU_Devices_FreePDK45_NMOS_VTG_spectre"
"I0_MM7n I0_MM6n I1_MM7n I1_MM6n I2_MM7n I2_MM6n I3_MM7n I3_MM6n I6_MM0n I6_MM6n I5_I0_MM0n I6_MM2n I4_MM2n I4_MM1n I6_MM1n I4_MM2@2n I4_MM0n" "NCSU_Devices_FreePDK45_PMOS_VTG_spectre"
"cc_899n cc_898n cc_897n cc_896n cc_895n cc_894n cc_893n cc_892n cc_891n cc_890n cc_889n cc_888n cc_887n cc_886n cc_885n cc_884n cc_883n cc_882n cc_881n cc_880n cc_879n cc_878n cc_877n cc_876n cc_875n cc_874n cc_873n cc_872n cc_871n cc_870n cc_869n cc_868n cc_867n cc_866n cc_865n cc_864n cc_863n cc_862n cc_861n cc_860n cc_859n cc_858n cc_857n cc_856n cc_855n cc_854n cc_853n cc_852n cc_851n cc_850n cc_849n cc_848n cc_847n cc_846n cc_845n cc_844n cc_843n cc_842n cc_841n cc_840n cc_839n cc_838n cc_837n cc_836n cc_835n cc_834n cc_833n cc_832n cc_831n cc_830n cc_829n cc_828n cc_827n cc_826n cc_825n cc_824n cc_823n cc_822n cc_821n cc_820n cc_819n cc_818n cc_817n cc_816n cc_815n cc_814n cc_813n cc_812n cc_811n cc_810n cc_809n cc_808n cc_807n cc_806n cc_805n cc_804n cc_803n cc_802n cc_801n cc_800n cc_799n cc_798n cc_797n cc_796n cc_795n cc_794n cc_793n cc_792n cc_791n cc_790n cc_789n cc_788n cc_787n cc_786n cc_785n cc_784n cc_783n cc_782n cc_781n cc_780n cc_779n cc_778n cc_777n cc_776n cc_775n cc_774n cc_773n cc_772n cc_771n cc_770n cc_769n cc_768n cc_767n cc_766n cc_765n cc_764n cc_763n cc_762n cc_761n cc_760n cc_759n cc_758n cc_757n cc_756n cc_755n cc_754n cc_753n cc_752n cc_751n cc_750n cc_749n cc_748n cc_747n cc_746n cc_745n cc_744n cc_743n cc_742n cc_741n cc_740n cc_739n cc_738n cc_737n cc_736n cc_735n cc_734n cc_733n cc_732n cc_731n cc_730n cc_729n cc_728n cc_727n cc_726n cc_725n cc_724n cc_723n cc_722n cc_721n cc_720n cc_719n cc_718n cc_717n cc_716n cc_715n cc_714n cc_713n cc_712n cc_711n cc_710n cc_709n cc_708n cc_707n cc_706n cc_705n cc_704n cc_703n cc_702n cc_701n cc_700n cc_699n cc_698n cc_697n cc_696n cc_695n cc_694n cc_693n cc_692n cc_691n cc_690n cc_689n cc_688n cc_687n cc_686n cc_685n cc_684n cc_683n cc_682n cc_681n cc_680n cc_679n cc_678n cc_677n cc_676n cc_675n cc_674n cc_673n cc_672n cc_671n cc_670n cc_669n cc_668n cc_667n cc_666n cc_665n cc_664n cc_663n cc_662n cc_661n cc_660n cc_659n cc_658n cc_657n cc_656n cc_655n cc_654n cc_653n cc_652n cc_651n cc_650n cc_649n cc_648n cc_647n cc_646n cc_645n cc_644n cc_643n cc_642n cc_641n cc_640n cc_639n cc_638n cc_637n cc_636n cc_635n cc_634n cc_633n cc_632n cc_631n cc_630n cc_629n cc_628n cc_627n cc_626n cc_625n cc_624n cc_623n cc_622n cc_621n cc_620n cc_619n cc_618n cc_617n cc_616n cc_615n cc_614n cc_613n cc_612n cc_611n cc_610n cc_609n cc_608n cc_607n cc_606n cc_605n cc_604n cc_603n cc_602n cc_601n cc_600n cc_599n cc_598n cc_597n cc_596n cc_595n cc_594n cc_593n cc_592n cc_591n cc_590n cc_589n cc_588n cc_587n cc_586n cc_585n cc_584n cc_583n cc_582n cc_581n cc_580n cc_579n cc_578n cc_577n cc_576n cc_575n cc_574n cc_573n cc_572n cc_571n cc_570n cc_569n cc_568n cc_567n cc_566n cc_565n cc_564n cc_563n cc_562n cc_561n cc_560n cc_559n cc_558n cc_557n cc_556n cc_555n cc_554n cc_553n cc_552n cc_551n cc_550n cc_549n cc_548n cc_547n cc_546n cc_545n cc_544n cc_543n cc_542n cc_541n cc_540n cc_539n cc_538n cc_537n cc_536n cc_535n cc_534n cc_533n cc_532n cc_531n cc_530n cc_529n cc_528n cc_527n cc_526n cc_525n cc_524n cc_523n cc_522n cc_521n cc_520n cc_519n cc_518n cc_517n cc_516n cc_515n cc_514n cc_513n cc_512n cc_511n cc_510n cc_509n cc_508n cc_507n cc_506n cc_505n cc_504n cc_503n cc_502n cc_501n cc_500n cc_499n cc_498n cc_497n cc_496n cc_495n cc_494n cc_493n cc_492n cc_491n cc_490n cc_489n cc_488n cc_487n cc_486n cc_485n cc_484n cc_483n cc_482n cc_481n cc_480n cc_479n cc_478n cc_477n cc_476n cc_475n cc_474n cc_473n cc_472n cc_471n cc_470n cc_469n cc_468n cc_467n cc_466n cc_465n cc_464n cc_463n cc_462n cc_461n cc_460n cc_459n cc_458n cc_457n cc_456n cc_455n cc_454n cc_453n cc_452n cc_451n cc_450n cc_449n cc_448n cc_447n cc_446n cc_445n cc_444n cc_443n cc_442n cc_441n cc_440n cc_439n cc_438n cc_437n cc_436n cc_435n cc_434n cc_433n cc_432n cc_431n cc_430n cc_429n cc_428n cc_427n cc_426n cc_425n cc_424n cc_423n cc_422n cc_421n cc_420n cc_419n cc_418n cc_417n cc_416n cc_415n cc_414n cc_413n cc_412n cc_411n cc_410n cc_409n cc_408n cc_407n cc_406n cc_405n cc_404n cc_403n cc_402n cc_401n cc_400n cc_399n cc_398n cc_397n cc_396n cc_395n cc_394n cc_393n cc_392n cc_391n cc_390n cc_389n cc_388n cc_387n cc_386n cc_385n cc_384n cc_383n cc_382n cc_381n cc_380n cc_379n cc_378n cc_377n cc_376n cc_375n cc_374n cc_373n cc_372n cc_371n cc_370n cc_369n cc_368n cc_367n cc_366n cc_365n cc_364n cc_363n cc_362n cc_361n cc_360n cc_359n cc_358n cc_357n cc_356n cc_355n cc_354n cc_353n cc_352n cc_351n cc_350n cc_349n cc_348n cc_347n cc_346n cc_345n cc_344n cc_343n cc_342n cc_341n cc_340n cc_339n cc_338n cc_337n cc_336n cc_335n cc_334n cc_333n cc_332n cc_331n cc_330n cc_329n cc_328n cc_327n cc_326n cc_325n cc_324n cc_323n cc_322n cc_321n cc_320n cc_319n cc_318n cc_317n cc_316n cc_315n cc_314n cc_313n cc_312n cc_311n cc_310n cc_309n cc_308n cc_307n cc_306n cc_305n cc_304n cc_303n cc_302n cc_301n cc_300n cc_299n cc_298n cc_297n cc_296n cc_295n cc_294n cc_293n cc_292n cc_291n cc_290n cc_289n cc_288n cc_287n cc_286n cc_285n cc_284n cc_283n cc_282n cc_281n cc_280n cc_279n cc_278n cc_277n cc_276n cc_275n cc_274n cc_273n cc_272n cc_271n cc_270n cc_269n cc_268n cc_267n cc_266n cc_265n cc_264n cc_263n cc_262n cc_261n cc_260n cc_259n cc_258n cc_257n cc_256n cc_255n cc_254n cc_253n cc_252n cc_251n cc_250n cc_249n cc_248n cc_247n cc_246n cc_245n cc_244n cc_243n cc_242n cc_241n cc_240n cc_239n cc_238n cc_237n cc_236n cc_235n cc_234n cc_233n cc_232n cc_231n cc_230n cc_229n cc_228n cc_227n cc_226n cc_225n cc_224n cc_223n cc_222n cc_221n cc_220n cc_219n cc_218n cc_217n cc_216n cc_215n cc_214n cc_213n cc_212n cc_211n cc_210n cc_209n cc_208n cc_207n cc_206n cc_205n cc_204n cc_203n cc_202n cc_201n cc_200n cc_199n cc_198n cc_197n cc_196n cc_195n cc_194n cc_193n cc_192n cc_191n cc_190n cc_189n cc_188n cc_187n cc_186n cc_185n cc_184n cc_183n cc_182n cc_181n cc_180n cc_179n cc_178n cc_177n cc_176n cc_175n cc_174n cc_173n cc_172n cc_171n cc_170n cc_169n cc_168n cc_167n cc_166n cc_165n cc_164n cc_163n cc_162n cc_161n cc_160n cc_159n cc_158n cc_157n cc_156n cc_155n cc_154n cc_153n cc_152n cc_151n cc_150n cc_149n cc_148n cc_147n cc_146n cc_145n cc_144n cc_143n cc_142n cc_141n cc_140n cc_139n cc_138n cc_137n cc_136n cc_135n cc_134n cc_133n cc_132n cc_131n cc_130n cc_129n cc_128n cc_127n cc_126n cc_125n cc_124n cc_123n cc_122n cc_121n cc_120n cc_119n cc_118n cc_117n cc_116n cc_115n cc_114n cc_113n cc_112n cc_111n cc_110n cc_109n cc_108n cc_107n cc_106n cc_105n cc_104n cc_103n cc_102n cc_101n cc_100n cc_99n cc_98n cc_97n cc_96n cc_95n cc_94n cc_93n cc_92n cc_91n cc_90n cc_89n cc_88n cc_87n cc_86n cc_85n cc_84n cc_83n cc_82n cc_81n cc_80n cc_79n cc_78n cc_77n cc_76n cc_75n cc_74n cc_73n cc_72n cc_71n cc_70n cc_69n cc_68n cc_67n cc_66n cc_65n cc_64n cc_63n cc_62n cc_61n cc_60n cc_59n cc_58n cc_57n cc_56n cc_55n cc_54n cc_53n cc_52n cc_51n cc_50n cc_49n cc_48n cc_47n cc_46n cc_45n cc_44n cc_43n cc_42n cc_41n cc_40n cc_39n cc_38n cc_37n cc_36n cc_35n cc_34n cc_33n cc_32n cc_31n cc_30n cc_29n cc_28n cc_27n cc_26n cc_25n cc_24n cc_23n cc_22n cc_21n cc_20n cc_19n cc_18n cc_17n cc_16n cc_15n cc_14n cc_13n cc_12n cc_11n cc_10n cc_9n cc_8n cc_7n cc_6n cc_5n cc_4n cc_3n cc_2n cc_1n ciWL1_28n ciWL1_27n ciWL1_26n ciWL2_28n ciWL2_27n ciWL2_26n ciWL3_28n ciWL3_27n ciWL3_26n ciWL0_29n ciWL0_28n ciWL0_27n ciPRE_B_38n ciPRE_B_37n ciPRE_B_36n ciPRE_B_35n ciPRE_B_34n ciPRE_B_33n ciPRE_B_32n ciPRE_B_31n ciPRE_B_30n ciPRE_B_29n ciXI6_net25_77n ciXI6_net25_76n ciXI6_net25_75n ciXI6_net25_74n ciXI6_net25_73n ciXI6_net25_72n ciXI6_net25_71n ciXI6_net25_70n ciXI6_net25_69n ciXI6_net25_68n ciXI6_net25_67n ciXI6_net25_66n civdd_161n civdd_160n civdd_159n civdd_158n civdd_157n civdd_156n civdd_155n civdd_154n civdd_153n civdd_152n civdd_151n civdd_150n civdd_149n civdd_148n civdd_147n civdd_146n civdd_145n cignd_261n cignd_260n cignd_259n cignd_258n cignd_257n cignd_256n cignd_255n cignd_254n cignd_253n cignd_252n cignd_251n cignd_250n cignd_249n cignd_248n cignd_247n cignd_246n cignd_245n cignd_244n cignd_243n cignd_242n cignd_241n cignd_240n cignd_239n cignd_238n cignd_237n cignd_236n cignd_235n cignd_234n ciBLB_292n ciBLB_291n ciBLB_290n ciBLB_289n ciBLB_288n ciBLB_287n ciBLB_286n ciBLB_285n ciBLB_284n ciBLB_283n ciBLB_282n ciBLB_281n ciBLB_280n ciBLB_279n ciBLB_278n ciBLB_277n ciBLB_276n ciBLB_275n ciBLB_274n ciBLB_273n ciBLB_272n ciBLB_271n ciBLB_270n ciBLB_269n ciBLB_268n ciBLB_267n ciBLB_266n ciBLB_265n ciBLB_264n ciBLB_263n ciBLB_262n ciBLB_261n ciBLB_260n ciBLB_259n ciBLB_258n ciXI6_net15_46n ciXI6_net15_45n ciXI6_net15_44n ciXI6_net15_43n ciXI6_net15_42n ciXI6_net15_41n ciXI6_net15_40n ciXI6_net17_30n ciXI6_net17_29n ciXI6_net17_28n ciXI6_net17_27n ciXI6_net17_26n ciXI5_net21_65n ciXI5_net21_64n ciXI5_net21_63n ciXI5_net21_62n ciXI5_net21_61n ciXI5_net21_60n ciXI5_net21_59n ciXI5_net21_58n ciXI5_net21_57n ciXI5_net21_56n ciXI5_net21_55n ciXI5_net21_54n ciSE_74n ciSE_73n ciSE_72n ciSE_71n ciSE_70n ciSE_69n ciSE_68n ciSE_67n ciSE_66n ciSE_65n ciSE_64n ciSE_63n ciSE_62n ciD_66n ciD_65n ciD_64n ciD_63n ciD_62n ciD_61n ciD_60n ciD_59n ciD_58n ciD_57n ciW_EN_61n ciW_EN_60n ciW_EN_59n ciW_EN_58n ciW_EN_57n ciW_EN_56n ciW_EN_55n ciW_EN_54n ciW_EN_53n ciW_EN_52n ciW_EN_51n ciBL_269n ciBL_268n ciBL_267n ciBL_266n ciBL_265n ciBL_264n ciBL_263n ciBL_262n ciBL_261n ciBL_260n ciBL_259n ciBL_258n ciBL_257n ciBL_256n ciBL_255n ciBL_254n ciBL_253n ciBL_252n ciBL_251n ciBL_250n ciBL_249n ciBL_248n ciBL_247n ciBL_246n ciBL_245n ciBL_244n ciBL_243n ciBL_242n ciBL_241n ciBL_240n ciBL_239n ciBL_238n ciBL_237n ciBL_236n ciBL_235n ciBL_234n ciXI0_net13_66n ciXI0_net13_65n ciXI0_net13_64n ciXI0_net13_63n ciXI0_net13_62n ciXI0_net13_61n ciXI0_net13_60n ciXI0_net13_59n ciXI0_net13_58n ciXI0_net13_57n ciXI0_net13_56n ciXI0_net13_55n ciXI0_net09_64n ciXI0_net09_63n ciXI0_net09_62n ciXI0_net09_61n ciXI0_net09_60n ciXI0_net09_59n ciXI0_net09_58n ciXI0_net09_57n ciXI0_net09_56n ciXI0_net09_55n ciXI0_net09_54n ciXI0_net09_53n ciXI1_net13_68n ciXI1_net13_67n ciXI1_net13_66n ciXI1_net13_65n ciXI1_net13_64n ciXI1_net13_63n ciXI1_net13_62n ciXI1_net13_61n ciXI1_net13_60n ciXI1_net13_59n ciXI1_net13_58n ciXI1_net13_57n ciXI1_net09_64n ciXI1_net09_63n ciXI1_net09_62n ciXI1_net09_61n ciXI1_net09_60n ciXI1_net09_59n ciXI1_net09_58n ciXI1_net09_57n ciXI1_net09_56n ciXI1_net09_55n ciXI1_net09_54n ciXI1_net09_53n ciXI2_net13_69n ciXI2_net13_68n ciXI2_net13_67n ciXI2_net13_66n ciXI2_net13_65n ciXI2_net13_64n ciXI2_net13_63n ciXI2_net13_62n ciXI2_net13_61n ciXI2_net13_60n ciXI2_net13_59n ciXI2_net13_58n ciXI2_net09_64n ciXI2_net09_63n ciXI2_net09_62n ciXI2_net09_61n ciXI2_net09_60n ciXI2_net09_59n ciXI2_net09_58n ciXI2_net09_57n ciXI2_net09_56n ciXI2_net09_55n ciXI2_net09_54n ciXI2_net09_53n ciXI3_net13_67n ciXI3_net13_66n ciXI3_net13_65n ciXI3_net13_64n ciXI3_net13_63n ciXI3_net13_62n ciXI3_net13_61n ciXI3_net13_60n ciXI3_net13_59n ciXI3_net13_58n ciXI3_net13_57n ciXI3_net13_56n ciXI3_net09_63n ciXI3_net09_62n ciXI3_net09_61n ciXI3_net09_60n ciXI3_net09_59n ciXI3_net09_58n ciXI3_net09_57n ciXI3_net09_56n ciXI3_net09_55n ciXI3_net09_54n ciXI3_net09_53n ciXI3_net09_52n" "analogLib_cap_spectre"
"rWL1_33n rWL1_32n rWL1_31n rWL1_30n rWL1_29n rWL2_33n rWL2_32n rWL2_31n rWL2_30n rWL2_29n rWL3_33n rWL3_32n rWL3_31n rWL3_30n rWL3_29n rWL0_34n rWL0_33n rWL0_32n rWL0_31n rWL0_30n rPRE_B_54n rPRE_B_53n rPRE_B_52n rPRE_B_51n rPRE_B_50n rPRE_B_49n rPRE_B_48n rPRE_B_47n rPRE_B_46n rPRE_B_45n rPRE_B_44n rPRE_B_43n rPRE_B_42n rPRE_B_41n rPRE_B_40n rPRE_B_39n rXI6_net25_93n rXI6_net25_92n rXI6_net25_91n rXI6_net25_90n rXI6_net25_89n rXI6_net25_88n rXI6_net25_87n rXI6_net25_86n rXI6_net25_85n rXI6_net25_84n rXI6_net25_83n rXI6_net25_82n rXI6_net25_81n rXI6_net25_80n rXI6_net25_79n rXI6_net25_78n rvdd_216n rvdd_215n rvdd_214n rvdd_213n rvdd_212n rvdd_211n rvdd_210n rvdd_209n rvdd_208n rvdd_207n rvdd_206n rvdd_205n rvdd_204n rvdd_203n rvdd_202n rvdd_201n rvdd_200n rvdd_199n rvdd_198n rvdd_197n rvdd_196n rvdd_195n rvdd_194n rvdd_193n rvdd_192n rvdd_191n rvdd_190n rvdd_189n rvdd_188n rvdd_187n rvdd_186n rvdd_185n rvdd_184n rvdd_183n rvdd_182n rvdd_181n rvdd_180n rvdd_179n rvdd_178n rvdd_177n rvdd_176n rvdd_175n rvdd_174n rvdd_173n rvdd_172n rvdd_171n rvdd_170n rvdd_169n rvdd_168n rvdd_167n rvdd_166n rvdd_165n rvdd_164n rvdd_163n rvdd_162n rgnd_332n rgnd_331n rgnd_330n rgnd_329n rgnd_328n rgnd_327n rgnd_326n rgnd_325n rgnd_324n rgnd_323n rgnd_322n rgnd_321n rgnd_320n rgnd_319n rgnd_318n rgnd_317n rgnd_316n rgnd_315n rgnd_314n rgnd_313n rgnd_312n rgnd_311n rgnd_310n rgnd_309n rgnd_308n rgnd_307n rgnd_306n rgnd_305n rgnd_304n rgnd_303n rgnd_302n rgnd_301n rgnd_300n rgnd_299n rgnd_298n rgnd_297n rgnd_296n rgnd_295n rgnd_294n rgnd_293n rgnd_292n rgnd_291n rgnd_290n rgnd_289n rgnd_288n rgnd_287n rgnd_286n rgnd_285n rgnd_284n rgnd_283n rgnd_282n rgnd_281n rgnd_280n rgnd_279n rgnd_278n rgnd_277n rgnd_276n rgnd_275n rgnd_274n rgnd_273n rgnd_272n rgnd_271n rgnd_270n rgnd_269n rgnd_268n rgnd_267n rgnd_266n rgnd_265n rgnd_264n rgnd_263n rgnd_262n rBLB_349n rBLB_348n rBLB_347n rBLB_346n rBLB_345n rBLB_344n rBLB_343n rBLB_342n rBLB_341n rBLB_340n rBLB_339n rBLB_338n rBLB_337n rBLB_336n rBLB_335n rBLB_334n rBLB_333n rBLB_332n rBLB_331n rBLB_330n rBLB_329n rBLB_328n rBLB_327n rBLB_326n rBLB_325n rBLB_324n rBLB_323n rBLB_322n rBLB_321n rBLB_320n rBLB_319n rBLB_318n rBLB_317n rBLB_316n rBLB_315n rBLB_314n rBLB_313n rBLB_312n rBLB_311n rBLB_310n rBLB_309n rBLB_308n rBLB_307n rBLB_306n rBLB_305n rBLB_304n rBLB_303n rBLB_302n rBLB_301n rBLB_300n rBLB_299n rBLB_298n rBLB_297n rBLB_296n rBLB_295n rBLB_294n rBLB_293n rXI6_net15_57n rXI6_net15_56n rXI6_net15_55n rXI6_net15_54n rXI6_net15_53n rXI6_net15_52n rXI6_net15_51n rXI6_net15_50n rXI6_net15_49n rXI6_net15_48n rXI6_net15_47n rXI6_net17_41n rXI6_net17_40n rXI6_net17_39n rXI6_net17_38n rXI6_net17_37n rXI6_net17_36n rXI6_net17_35n rXI6_net17_34n rXI6_net17_33n rXI6_net17_32n rXI6_net17_31n rXI5_net21_80n rXI5_net21_79n rXI5_net21_78n rXI5_net21_77n rXI5_net21_76n rXI5_net21_75n rXI5_net21_74n rXI5_net21_73n rXI5_net21_72n rXI5_net21_71n rXI5_net21_70n rXI5_net21_69n rXI5_net21_68n rXI5_net21_67n rXI5_net21_66n rSE_96n rSE_95n rSE_94n rSE_93n rSE_92n rSE_91n rSE_90n rSE_89n rSE_88n rSE_87n rSE_86n rSE_85n rSE_84n rSE_83n rSE_82n rSE_81n rSE_80n rSE_79n rSE_78n rSE_77n rSE_76n rSE_75n rD_81n rD_80n rD_79n rD_78n rD_77n rD_76n rD_75n rD_74n rD_73n rD_72n rD_71n rD_70n rD_69n rD_68n rD_67n rW_EN_76n rW_EN_75n rW_EN_74n rW_EN_73n rW_EN_72n rW_EN_71n rW_EN_70n rW_EN_69n rW_EN_68n rW_EN_67n rW_EN_66n rW_EN_65n rW_EN_64n rW_EN_63n rW_EN_62n rBL_328n rBL_327n rBL_326n rBL_325n rBL_324n rBL_323n rBL_322n rBL_321n rBL_320n rBL_319n rBL_318n rBL_317n rBL_316n rBL_315n rBL_314n rBL_313n rBL_312n rBL_311n rBL_310n rBL_309n rBL_308n rBL_307n rBL_306n rBL_305n rBL_304n rBL_303n rBL_302n rBL_301n rBL_300n rBL_299n rBL_298n rBL_297n rBL_296n rBL_295n rBL_294n rBL_293n rBL_292n rBL_291n rBL_290n rBL_289n rBL_288n rBL_287n rBL_286n rBL_285n rBL_284n rBL_283n rBL_282n rBL_281n rBL_280n rBL_279n rBL_278n rBL_277n rBL_276n rBL_275n rBL_274n rBL_273n rBL_272n rBL_271n rBL_270n rXI0_net13_85n rXI0_net13_84n rXI0_net13_83n rXI0_net13_82n rXI0_net13_81n rXI0_net13_80n rXI0_net13_79n rXI0_net13_78n rXI0_net13_77n rXI0_net13_76n rXI0_net13_75n rXI0_net13_74n rXI0_net13_73n rXI0_net13_72n rXI0_net13_71n rXI0_net13_70n rXI0_net13_69n rXI0_net13_68n rXI0_net13_67n rXI0_net09_83n rXI0_net09_82n rXI0_net09_81n rXI0_net09_80n rXI0_net09_79n rXI0_net09_78n rXI0_net09_77n rXI0_net09_76n rXI0_net09_75n rXI0_net09_74n rXI0_net09_73n rXI0_net09_72n rXI0_net09_71n rXI0_net09_70n rXI0_net09_69n rXI0_net09_68n rXI0_net09_67n rXI0_net09_66n rXI0_net09_65n rXI1_net13_87n rXI1_net13_86n rXI1_net13_85n rXI1_net13_84n rXI1_net13_83n rXI1_net13_82n rXI1_net13_81n rXI1_net13_80n rXI1_net13_79n rXI1_net13_78n rXI1_net13_77n rXI1_net13_76n rXI1_net13_75n rXI1_net13_74n rXI1_net13_73n rXI1_net13_72n rXI1_net13_71n rXI1_net13_70n rXI1_net13_69n rXI1_net09_83n rXI1_net09_82n rXI1_net09_81n rXI1_net09_80n rXI1_net09_79n rXI1_net09_78n rXI1_net09_77n rXI1_net09_76n rXI1_net09_75n rXI1_net09_74n rXI1_net09_73n rXI1_net09_72n rXI1_net09_71n rXI1_net09_70n rXI1_net09_69n rXI1_net09_68n rXI1_net09_67n rXI1_net09_66n rXI1_net09_65n rXI2_net13_88n rXI2_net13_87n rXI2_net13_86n rXI2_net13_85n rXI2_net13_84n rXI2_net13_83n rXI2_net13_82n rXI2_net13_81n rXI2_net13_80n rXI2_net13_79n rXI2_net13_78n rXI2_net13_77n rXI2_net13_76n rXI2_net13_75n rXI2_net13_74n rXI2_net13_73n rXI2_net13_72n rXI2_net13_71n rXI2_net13_70n rXI2_net09_83n rXI2_net09_82n rXI2_net09_81n rXI2_net09_80n rXI2_net09_79n rXI2_net09_78n rXI2_net09_77n rXI2_net09_76n rXI2_net09_75n rXI2_net09_74n rXI2_net09_73n rXI2_net09_72n rXI2_net09_71n rXI2_net09_70n rXI2_net09_69n rXI2_net09_68n rXI2_net09_67n rXI2_net09_66n rXI2_net09_65n rXI3_net13_86n rXI3_net13_85n rXI3_net13_84n rXI3_net13_83n rXI3_net13_82n rXI3_net13_81n rXI3_net13_80n rXI3_net13_79n rXI3_net13_78n rXI3_net13_77n rXI3_net13_76n rXI3_net13_75n rXI3_net13_74n rXI3_net13_73n rXI3_net13_72n rXI3_net13_71n rXI3_net13_70n rXI3_net13_69n rXI3_net13_68n rXI3_net09_82n rXI3_net09_81n rXI3_net09_80n rXI3_net09_79n rXI3_net09_78n rXI3_net09_77n rXI3_net09_76n rXI3_net09_75n rXI3_net09_74n rXI3_net09_73n rXI3_net09_72n rXI3_net09_71n rXI3_net09_70n rXI3_net09_69n rXI3_net09_68n rXI3_net09_67n rXI3_net09_66n rXI3_net09_65n rXI3_net09_64n" "analogLib_res_spectre"
"BLv" ":1v"
"BLBv" ":2v"
"Dv" ":3v"
"PRE_Bv" ":4v"
"SEv" ":5v"
"WL0v" ":6v"
"WL1v" ":7v"
"WL2v" ":8v"
"WL3v" ":9v"
"W_ENv" ":10v"
"gndv" ":11v"
"vddv" ":12v"
