HEADER
"PSFversion" "1.00"
"0v" "_net0v"
