HEADER
"PSFversion" "1.00"
"I4n I3n I2n I1n I0n" "inverter"
"V0n" "analogLib_vpulse_spectre"
"V2n V1n" "analogLib_vdc_spectre"
