HEADER
"PSFversion" "1.00"
"design" "(\"ECE391Lib\" \"Sim_inv\" \"schematic\" \"\")"
"simulator" "spectre"
"temperature" "27"
"host" ""
"date" "Jan 15 19:35:40 2026"
"title" ""
"analysisList" "()"
END
