HEADER
"PSFversion" "1.00"
"design" "(\"EECS391\" \"Sim_nor2\" \"schematic\" \"\")"
"simulator" "spectre"
"temperature" "27"
"host" ""
"date" "Feb  4 16:21:40 2026"
"title" ""
"analysisList" "()"
END
