HEADER
"PSFversion" "1.00"
"simulator" "spectre"
"version" "18.1.0.556.isr13"
"date" "4:21:41 PM, Wed Feb 4, 2026"
"design" "// Generated for: spectre"
"analysis type" "info.subckts"
"analysis name" "subckts"
"analysis description" "Circuit Information"
"xVecSorted" "unknown"
"tolerance.relative" 0.00100000
TYPE
"subckt" STRUCT(
"subckt_params" STRING *
"subckt_terminals" STRING *
"subckt_instances" STRING *
) PROP(
"key" "sub"
)
VALUE
"NOR2" "subckt" (
""
"A B gnd out vdd"
"I16"
)
"inverter" "subckt" (
""
"gnd in out vdd"
"I15 I13 I7 I9 I10 I11"
)
END
