HEADER
"PSFversion" "1.00"
"Time Stamp" "Feb  4 16:21:40 2026"
TYPE
"variable" STRUCT(
"value" FLOAT DOUBLE
) PROP( "key" "element" )
VALUE
"vdd" "variable" ( 1.1 ) PROP( )
"temp" "variable" ( 27 ) PROP( )
END
